LAMMPS data file via write_data, version 16 Mar 2018, timestep = 200000

8000 atoms
1 atom types

-4.7080544992564199e-02 5.4357080544989110e+01 xlo xhi
-4.7080544992564199e-02 5.4357080544989110e+01 ylo yhi
-4.7080544992564199e-02 5.4357080544989110e+01 zlo zhi

Masses

1 28.0855

Atoms # atomic

5 1 1.3551900928051903e+00 1.3032927272675174e+00 1.3403200060800773e+00 0 0 0
3 1 2.6470324087993093e+00 -2.9487423095417853e-02 2.6571106311948136e+00 0 0 0
4 1 2.7139824176620508e+00 2.5628140783515132e+00 3.5073461332586930e-02 0 0 0
13 1 6.7211900263410573e+00 1.2735830426565311e+00 1.2605457726836582e+00 0 0 0
10 1 5.4613986312647471e+00 2.6512207022269689e+00 2.6063390238366009e+00 0 0 0
19 1 1.2179586102497368e+01 1.4031692701953473e+00 1.2590882415595404e+00 0 0 0
8 1 4.1308797098941161e+00 4.0090027649646238e+00 1.3099571318851708e+00 0 0 0
12 1 8.1071226495024735e+00 2.6978316163788016e+00 -4.0127332996490850e-02 0 0 0
16 1 9.4089305712519327e+00 4.1272458706920494e+00 1.3557813506789607e+00 0 0 0
18 1 1.0838803081706663e+01 2.7823988872547281e+00 2.5565592328692937e+00 0 0 0
25 1 1.2847378325643000e+00 6.8148494548962653e+00 1.4245137717406147e+00 0 0 0
24 1 2.6417246652477746e+00 8.0376194909678631e+00 -4.1387023201783918e-03 0 0 0
29 1 5.2995383237431453e+00 5.4707931797147058e+00 2.5546519526898237e-02 0 0 0
31 1 8.0598231440426762e+00 5.4599737252870533e+00 2.6600844172464875e+00 0 0 0
33 1 6.6470941489263131e+00 6.8168435460705501e+00 1.3368986789784840e+00 0 0 0
39 1 1.2213969208791911e+01 6.7129244157951913e+00 1.2193077218157933e+00 0 0 0
38 1 1.0892552293414481e+01 8.0424111046595606e+00 2.6261267987610366e+00 0 0 0
2021 1 1.3505742242019982e+01 5.3955456262095041e+00 2.6466426188121237e+00 0 0 0
28 1 4.0979982158332700e+00 9.4554743872147515e+00 1.2984046207193265e+00 0 0 0
32 1 8.0578539412684709e+00 8.1847780965542078e+00 -9.2761407490674769e-03 0 0 0
51 1 8.0902462242587667e+00 1.0801921226802950e+01 2.6261754183350536e+00 0 0 0
36 1 9.4384316015212892e+00 9.4224007970995824e+00 1.3168958303864511e+00 0 0 0
57 1 1.0773708763377533e+01 1.0799843202272767e+01 -3.6820113123781084e-04 0 0 0
45 1 1.2054777399922871e+00 1.2133483223058018e+01 1.3456860041289207e+00 0 0 0
44 1 2.5868861043065863e+00 1.3456695965955941e+01 2.2009101458536406e-02 0 0 0
49 1 5.3427197444767369e+00 1.0874363933250256e+01 -1.5882634017458486e-02 0 0 0
53 1 6.6394031281141990e+00 1.2185503996536113e+01 1.3509781521057560e+00 0 0 0
59 1 1.2305320684242789e+01 1.2222227739203252e+01 1.3296877530060900e+00 0 0 0
63 1 2.5877905771709218e+00 1.6182670021127233e+01 2.5798804073830048e+00 0 0 0
48 1 3.9827722309714382e+00 1.4865203616055926e+01 1.2741641031326643e+00 0 0 0
56 1 9.3684320520374804e+00 1.4894096324965673e+01 1.3668137171287034e+00 0 0 0
58 1 1.0832443694530781e+01 1.3564846964038065e+01 2.6430343736830424e+00 0 0 0
65 1 1.2143930031760606e+00 1.7665717549741078e+01 1.3432065827516666e+00 0 0 0
73 1 6.7030985935049232e+00 1.7600987529171700e+01 1.4006025130705844e+00 0 0 0
77 1 1.0719063879078639e+01 1.6276024209051769e+01 4.4036701043481230e-02 0 0 0
72 1 8.1510203022671330e+00 1.8946106701462874e+01 9.4537382329079378e-02 0 0 0
79 1 1.2163668429140728e+01 1.7637646649273254e+01 1.3574016364139214e+00 0 0 0
78 1 1.0891601011568794e+01 1.8963394127136432e+01 2.6636317596540922e+00 0 0 0
2061 1 1.3519451436788374e+01 1.6328167346603948e+01 2.6611261788703828e+00 0 0 0
64 1 2.5933669849429246e+00 1.8998581525861553e+01 1.4926597136167175e-02 0 0 0
68 1 3.9845671912009015e+00 2.0449013685895114e+01 1.2318838594173889e+00 0 0 0
70 1 5.3220250152262221e+00 1.9007913891131512e+01 2.6148402248625304e+00 0 0 0
76 1 9.5036672326630018e+00 2.0374755860502827e+01 1.3075203045259729e+00 0 0 0
91 1 8.1186294001407830e+00 2.1664529604803935e+01 2.6227665638317941e+00 0 0 0
2062 1 1.3416572509169958e+01 1.9024982741545973e+01 -3.3141797691087049e-02 0 0 0
85 1 1.2617373472350049e+00 2.3163980839887568e+01 1.2324281744275754e+00 0 0 0
83 1 2.6200964779381053e+00 2.1860563135714756e+01 2.6301215936858280e+00 0 0 0
93 1 6.8070273249691695e+00 2.3123934426052344e+01 1.3200974218633461e+00 0 0 0
99 1 1.2214060435937458e+01 2.3186615769627664e+01 1.3010000815003349e+00 0 0 0
1003 1 2.6154966565832365e+00 2.7077775139088324e+01 2.6035518565294695e+00 0 0 0
84 1 2.6041094789495833e+00 2.4532485517633102e+01 -3.0794770982560647e-02 0 0 0
88 1 4.1632752456765330e+00 2.5801952953291401e+01 1.2870903061373793e+00 0 0 0
96 1 9.4987227416767759e+00 2.5860221490190909e+01 1.1999008804917963e+00 0 0 0
98 1 1.0873052509373041e+01 2.4516544099558956e+01 2.6469820506424853e+00 0 0 0
7 1 4.0779974780168811e+00 1.3511004777039524e+00 3.9107582154969438e+00 0 0 0
109 1 5.4479345402497206e+00 -4.5821538488284672e-02 5.2276842654450109e+00 0 0 0
15 1 9.5002816912000334e+00 1.3421232010304722e+00 3.9196488220696550e+00 0 0 0
2 1 -6.3768352696083469e-03 2.7268644865128100e+00 2.7045122367842502e+00 0 0 0
6 1 1.3747382565221486e+00 4.0725962222303709e+00 4.0352135154873627e+00 0 0 0
104 1 2.7285005376812492e+00 2.7351313987645143e+00 5.3298208297631104e+00 0 0 0
14 1 6.7962577211522168e+00 3.9940616444942005e+00 4.0718723327353912e+00 0 0 0
112 1 8.1320732499236623e+00 2.7408588369821549e+00 5.3210701543991572e+00 0 0 0
137 1 1.0757034662746015e+01 5.3478517934848444e+00 5.2741883109884267e+00 0 0 0
20 1 1.2234994948492973e+01 3.9775655349254038e+00 3.9272566357998011e+00 0 0 0
2102 1 1.3547183931199784e+01 2.6878403304589997e+00 5.3242465138064512e+00 0 0 0
23 1 2.7709081898037535e+00 5.4552974554027189e+00 2.7322631739886662e+00 0 0 0
27 1 4.0221657083640308e+00 6.8380311218880152e+00 4.0846266179565207e+00 0 0 0
35 1 9.4351877374894464e+00 6.8082271166395456e+00 4.0137703359726880e+00 0 0 0
43 1 2.6376917241844979e+00 1.0764325983545154e+01 2.6945330281623776e+00 0 0 0
26 1 1.1444188694014856e+00 9.4814198916025756e+00 4.0561049079793730e+00 0 0 0
124 1 2.5612827110221170e+00 8.2045930313442224e+00 5.3377825438401558e+00 0 0 0
30 1 5.3916669343758130e+00 8.1934482795653381e+00 2.7461991795229808e+00 0 0 0
34 1 6.7634400677822875e+00 9.5059544969335743e+00 4.0525193005488713e+00 0 0 0
40 1 1.2136693455413107e+01 9.5057625685868583e+00 3.8943281128968339e+00 0 0 0
2122 1 1.3476618531085480e+01 8.1423671450766832e+00 5.3158765736910691e+00 0 0 0
149 1 5.2911134587877715e+00 1.0922953168589544e+01 5.3639364108067840e+00 0 0 0
47 1 3.9141044237080873e+00 1.2262738351270382e+01 4.0258748148122852e+00 0 0 0
55 1 9.4307496035208640e+00 1.2208607610141311e+01 4.0295918359043217e+00 0 0 0
157 1 1.0814895781551881e+01 1.0857774435826681e+01 5.2742556134732288e+00 0 0 0
46 1 1.2733761054115960e+00 1.4963162885534270e+01 3.9877596616873792e+00 0 0 0
50 1 5.3420779158656684e+00 1.3593963315364020e+01 2.7193090545744139e+00 0 0 0
54 1 6.7052959431442076e+00 1.4874873855336602e+01 4.1202349105499172e+00 0 0 0
60 1 1.2121210892870582e+01 1.5026386745174488e+01 4.0616685864846360e+00 0 0 0
2142 1 1.3549353477651508e+01 1.3589929349495110e+01 5.2253139008547080e+00 0 0 0
161 1 -2.0102820665487259e-02 1.6311746229524402e+01 5.2696835955836612e+00 0 0 0
164 1 2.6730668541918838e+00 1.8987792587574255e+01 5.3003292771880011e+00 0 0 0
67 1 3.9857498989899733e+00 1.7577150063793102e+01 3.8984206274021314e+00 0 0 0
169 1 5.3685081312969238e+00 1.6350907927971054e+01 5.3826720043217691e+00 0 0 0
71 1 7.9868575622107301e+00 1.6311846981837565e+01 2.6887023527053411e+00 0 0 0
172 1 8.0710101712523006e+00 1.8972603500652045e+01 5.3080085463132871e+00 0 0 0
75 1 9.4638707386157996e+00 1.7703720748968291e+01 4.0474370008908167e+00 0 0 0
66 1 1.2601608143047909e+00 2.0415931528239135e+01 4.1048292139292570e+00 0 0 0
74 1 6.6436135074291958e+00 2.0399217773298123e+01 3.9989430343946077e+00 0 0 0
197 1 1.0787874555791291e+01 2.1697841057135260e+01 5.3764209272607593e+00 0 0 0
80 1 1.2215252948941279e+01 2.0336358396296500e+01 4.0763694347784254e+00 0 0 0
184 1 2.5990268084057861e+00 2.4422141489266348e+01 5.3791505714058090e+00 0 0 0
87 1 4.0730077340763637e+00 2.3106121012463792e+01 4.0616490971769217e+00 0 0 0
192 1 8.1972233836053565e+00 2.4410540459566555e+01 5.3734346726188225e+00 0 0 0
95 1 9.4510070512141624e+00 2.3063271654465218e+01 3.8713521999028795e+00 0 0 0
2081 1 1.3422059209730776e+01 2.1758407733855840e+01 2.6947568484868238e+00 0 0 0
1101 1 2.6946518560258217e-02 2.7116158168142391e+01 5.3147286420608948e+00 0 0 0
86 1 1.3004359432472252e+00 2.5754678335512637e+01 3.9535028385101434e+00 0 0 0
90 1 5.4392434201859974e+00 2.4459372093014380e+01 2.6988513447829559e+00 0 0 0
94 1 6.9093826020656177e+00 2.5770834204757620e+01 4.0247595700753314e+00 0 0 0
1109 1 5.4411637373514301e+00 2.7102683462251509e+01 5.3813042812563632e+00 0 0 0
100 1 1.2165757703849938e+01 2.5809665601917580e+01 4.0371936255210725e+00 0 0 0
105 1 1.3397580013378507e+00 1.3708777530678089e+00 6.7368101470769917e+00 0 0 0
110 1 5.3325456621915119e+00 2.6558974843193797e+00 8.0509392298899236e+00 0 0 0
103 1 2.6850285344302089e+00 -3.8088897381797437e-02 7.9988784214741688e+00 0 0 0
113 1 6.7078361289702926e+00 1.3457310145589079e+00 6.6412254770320498e+00 0 0 0
111 1 8.1167967904688449e+00 -1.9438171863869876e-02 8.0415274309612723e+00 0 0 0
119 1 1.2224853385354111e+01 1.2708389470234966e+00 6.7340173715371838e+00 0 0 0
118 1 1.0868547476268526e+01 2.6133280946471458e+00 8.0469346874640131e+00 0 0 0
121 1 -4.2834803306430205e-02 5.3921915385920602e+00 5.4505513614383956e+00 0 0 0
108 1 3.9503685167407334e+00 4.0804145630607342e+00 6.8159873710641383e+00 0 0 0
131 1 8.0546177647557631e+00 5.3598662373092045e+00 8.0502566242014719e+00 0 0 0
129 1 5.4187740838645899e+00 5.3248220643239144e+00 5.4583217822735266e+00 0 0 0
116 1 9.4480981036334768e+00 4.0870524266634183e+00 6.7174952832168575e+00 0 0 0
2121 1 1.3515244933887645e+01 5.3735887423108384e+00 8.0395946996149679e+00 0 0 0
125 1 1.2608205440532847e+00 6.8109982454252505e+00 6.6564538050451496e+00 0 0 0
133 1 6.7735469033627842e+00 6.7169926798296640e+00 6.7608658609091785e+00 0 0 0
130 1 5.4814537604502274e+00 8.1030824426704751e+00 8.1097407533022476e+00 0 0 0
132 1 8.1587280804458597e+00 8.0972222657108475e+00 5.4475251951892920e+00 0 0 0
138 1 1.0748508306192038e+01 8.0447893375894921e+00 8.0528024100761577e+00 0 0 0
139 1 1.2049367884499503e+01 6.6787701716912471e+00 6.6499687711609532e+00 0 0 0
128 1 3.9982516861035720e+00 9.4872110118560187e+00 6.7307168385430929e+00 0 0 0
151 1 8.1050577434814564e+00 1.0781273294068367e+01 8.0684223608286452e+00 0 0 0
136 1 9.4853201133752769e+00 9.5143819331387629e+00 6.6926928470155005e+00 0 0 0
2141 1 1.3553441621205891e+01 1.0813478345195968e+01 8.0714297838561233e+00 0 0 0
144 1 2.6151006534828345e+00 1.3513748801918180e+01 5.4588273509525180e+00 0 0 0
145 1 1.1846296736412532e+00 1.2209266064924179e+01 6.7282112078663694e+00 0 0 0
153 1 6.7369520351110479e+00 1.2177694733130645e+01 6.8287896457340995e+00 0 0 0
152 1 8.1041051334841399e+00 1.3541827388411726e+01 5.5128125829735133e+00 0 0 0
150 1 5.4240107900189765e+00 1.3540944727082410e+01 8.0999560478169794e+00 0 0 0
159 1 1.2249217237200162e+01 1.2191284317952350e+01 6.6094634021727128e+00 0 0 0
158 1 1.0865960018630258e+01 1.3503915550329049e+01 8.0398218328566724e+00 0 0 0
163 1 2.6426021154305901e+00 1.6237407478437568e+01 8.0791515455142129e+00 0 0 0
148 1 4.0300081808262247e+00 1.4920142200937068e+01 6.7629232607413696e+00 0 0 0
156 1 9.5285533214803628e+00 1.4938082490304030e+01 6.7772398081516654e+00 0 0 0
165 1 1.2897855394278179e+00 1.7643514448201177e+01 6.6665693289572028e+00 0 0 0
173 1 6.7429129537592916e+00 1.7657674451983276e+01 6.7506472152172243e+00 0 0 0
170 1 5.4051576206741911e+00 1.8959485080456243e+01 8.0935389763671655e+00 0 0 0
177 1 1.0811656954079398e+01 1.6408803076702959e+01 5.4467087140840880e+00 0 0 0
171 1 8.1620998096111155e+00 1.6305261941587325e+01 8.0782329567724815e+00 0 0 0
179 1 1.2304505402257696e+01 1.7759285852625158e+01 6.7769619153972842e+00 0 0 0
181 1 -3.8129678523701430e-02 2.1704870023255879e+01 5.3981515039637342e+00 0 0 0
183 1 2.6429132990624318e+00 2.1612430727823849e+01 8.0451394967074190e+00 0 0 0
168 1 4.0778592896033468e+00 2.0316708141506535e+01 6.6774977615850384e+00 0 0 0
191 1 8.0712722113745716e+00 2.1687673939079506e+01 8.0395694769113248e+00 0 0 0
176 1 9.3434239458981754e+00 2.0370710816248522e+01 6.7209066426450539e+00 0 0 0
178 1 1.0736845808150854e+01 1.9083081406409857e+01 8.0823210224431641e+00 0 0 0
185 1 1.3021776819399520e+00 2.3042446825940900e+01 6.7802763649182030e+00 0 0 0
189 1 5.3723912378960863e+00 2.1748565938892831e+01 5.4301296104762455e+00 0 0 0
190 1 5.4129504627356306e+00 2.4394583072633456e+01 8.0004794438830178e+00 0 0 0
193 1 6.7606356809458461e+00 2.3126725188872761e+01 6.6515223224902096e+00 0 0 0
2182 1 1.3497980472688134e+01 2.4382847991750850e+01 5.4227620642314376e+00 0 0 0
199 1 1.2011341333913624e+01 2.3116333249475606e+01 6.7932362493092207e+00 0 0 0
188 1 4.0295844921331785e+00 2.5734570335573348e+01 6.7279706289234102e+00 0 0 0
1111 1 8.0443786664907204e+00 2.7126919991155564e+01 8.0172150297062537e+00 0 0 0
196 1 9.4243694259140121e+00 2.5824348431169341e+01 6.7626138892145162e+00 0 0 0
1117 1 1.0783227730865013e+01 2.7106872138235790e+01 5.3968800370998222e+00 0 0 0
201 1 7.0445832779684331e-02 -5.9814223597243199e-04 1.0718112530022916e+01 0 0 0
107 1 4.0118163811198597e+00 1.3100206668729575e+00 9.4000701452692343e+00 0 0 0
203 1 5.3429154017678817e+00 -2.8115509993710930e-02 1.0793435483691106e+01 0 0 0
115 1 9.5121209476640374e+00 1.3218058719726011e+00 9.4068267061261679e+00 0 0 0
204 1 8.1254540895273717e+00 2.6352741984013059e+00 1.0733933139271837e+01 0 0 0
102 1 -2.6641555738208901e-02 2.7167013366830548e+00 8.1459611969863843e+00 0 0 0
106 1 1.2499645903329510e+00 4.0332757469006344e+00 9.5748868316183557e+00 0 0 0
208 1 5.3668765799272267e+00 5.3525763453372832e+00 1.0738277851494104e+01 0 0 0
114 1 6.7385706587509562e+00 3.9483707888389814e+00 9.4159877576505657e+00 0 0 0
120 1 1.2224783377485522e+01 4.0639036525050729e+00 9.4211399500331421e+00 0 0 0
210 1 1.0850503419806843e+01 5.3614770097873423e+00 1.0820916258319519e+01 0 0 0
123 1 2.6137470771030333e+00 5.4554505288268995e+00 8.1463329365940318e+00 0 0 0
127 1 4.0885231517617520e+00 6.8001192158685555e+00 9.3411596110768826e+00 0 0 0
135 1 9.5206486444252576e+00 6.6838997002983360e+00 9.4442679599613406e+00 0 0 0
126 1 1.2601046240606792e+00 9.4479768533498127e+00 9.4765501555242633e+00 0 0 0
207 1 2.7415745546179808e+00 8.1584143254645483e+00 1.0770996212402224e+01 0 0 0
134 1 6.7690562579337685e+00 9.5062093370967702e+00 9.5196867069098126e+00 0 0 0
213 1 5.3979305275006579e+00 1.0822497742973605e+01 1.0822943189572804e+01 0 0 0
140 1 1.2126302761845436e+01 9.3631913289604274e+00 9.4052531792824112e+00 0 0 0
143 1 2.5905716367584204e+00 1.0876368050969182e+01 8.1278075009425148e+00 0 0 0
147 1 4.0448710097980989e+00 1.2147015013803371e+01 9.4341613619968729e+00 0 0 0
212 1 2.6856946470400236e+00 1.3514593515080275e+01 1.0752782608947559e+01 0 0 0
155 1 9.6158185891752943e+00 1.2194919438565080e+01 9.5017115354442527e+00 0 0 0
214 1 8.1366266875921465e+00 1.3511778137394760e+01 1.0808229107091325e+01 0 0 0
146 1 1.3006386409104156e+00 1.4916037217344112e+01 9.5493863916257880e+00 0 0 0
154 1 6.7687815192162306e+00 1.4880498310636323e+01 9.4359392247035334e+00 0 0 0
218 1 5.4677923737603740e+00 1.6248695641750647e+01 1.0785655066742411e+01 0 0 0
160 1 1.2203529502926528e+01 1.4923768646477622e+01 9.4191127454631278e+00 0 0 0
167 1 4.0897436277988506e+00 1.7547818662332425e+01 9.4101255735583749e+00 0 0 0
217 1 2.6822525614430366e+00 1.8811583860155650e+01 1.0770535596970420e+01 0 0 0
175 1 9.4759707433283289e+00 1.7688734149813921e+01 9.4389890084704771e+00 0 0 0
220 1 1.0837699650200088e+01 1.6293945919888870e+01 1.0815953347537665e+01 0 0 0
166 1 1.2735891557948584e+00 2.0270579152756515e+01 9.4162341422489000e+00 0 0 0
174 1 6.7868303691561538e+00 2.0340688196572081e+01 9.4255942943418969e+00 0 0 0
223 1 5.3958413067647060e+00 2.1624893620100217e+01 1.0759740671390020e+01 0 0 0
225 1 1.0711115829615562e+01 2.1682828417083961e+01 1.0803384899400045e+01 0 0 0
180 1 1.2092870224068568e+01 2.0354976693335733e+01 9.4247977170173449e+00 0 0 0
222 1 2.6425125535695253e+00 2.4350423277409064e+01 1.0833229978426855e+01 0 0 0
187 1 4.0794317313011010e+00 2.3026042092391886e+01 9.4861524505568653e+00 0 0 0
224 1 8.0923616616961578e+00 2.4365451902679094e+01 1.0833675377664287e+01 0 0 0
195 1 9.3427371581167762e+00 2.2997212903212148e+01 9.4452044254445191e+00 0 0 0
2181 1 1.3442758160654373e+01 2.1716350311937287e+01 8.1329515644970503e+00 0 0 0
186 1 1.2873287766226080e+00 2.5708965529206239e+01 9.4964372625247808e+00 0 0 0
1201 1 -3.8135681201488594e-02 2.7106967794535624e+01 1.0823514498663110e+01 0 0 0
1203 1 5.3371412327584711e+00 2.7117597446911866e+01 1.0810317217670883e+01 0 0 0
1103 1 2.7157898599976216e+00 2.7060658266135150e+01 8.1599531037835042e+00 0 0 0
194 1 6.7137151010786029e+00 2.5684927149883471e+01 9.4361639997769764e+00 0 0 0
198 1 1.0654164296462159e+01 2.4453066802315746e+01 8.2274493437873168e+00 0 0 0
200 1 1.2046592664575371e+01 2.5830160495012056e+01 9.4817493619020254e+00 0 0 0
2221 1 1.3428086107905944e+01 2.4444841535449086e+01 1.0786318229586167e+01 0 0 0
228 1 1.3319739842304479e+00 1.2527886524314920e+00 1.2106992153799272e+01 0 0 0
232 1 5.3457569571054062e+00 2.6185512569653646e+00 1.3504644756118562e+01 0 0 0
234 1 6.6938030545937233e+00 1.3487299015544014e+00 1.2148680989891993e+01 0 0 0
238 1 1.0807571541869201e+01 2.5888098973656342e+00 1.3546288415595024e+01 0 0 0
239 1 1.2224625896821431e+01 1.2896413207071806e+00 1.2149161389867597e+01 0 0 0
226 1 -5.0703826056235357e-03 2.6764818281016667e+00 1.3542682576042667e+01 0 0 0
231 1 4.0651442266365816e+00 4.0138906790926461e+00 1.2143054547554259e+01 0 0 0
202 1 2.6798567874383514e+00 2.6837536958383392e+00 1.0872311450139707e+01 0 0 0
237 1 9.4617365371001245e+00 3.9492431057087174e+00 1.2192726847643346e+01 0 0 0
243 1 1.3211935836730682e+00 6.8387491250866539e+00 1.2128041922812240e+01 0 0 0
206 1 -3.0132954866483323e-02 5.4614954238733304e+00 1.0872687126971252e+01 0 0 0
242 1 2.7252810482776475e+00 5.4347942997439489e+00 1.3405101021511188e+01 0 0 0
249 1 6.7035759424738135e+00 6.7095808154245651e+00 1.2153798401238985e+01 0 0 0
253 1 1.0842680484776741e+01 8.0732633779853380e+00 1.3495927106458538e+01 0 0 0
254 1 1.2195914535961318e+01 6.7380117108901407e+00 1.2063086547283284e+01 0 0 0
2241 1 1.3465911205900419e+01 5.4268106081371945e+00 1.3446407473920269e+01 0 0 0
246 1 4.1216558750318733e+00 9.4306043080997153e+00 1.2148470932992501e+01 0 0 0
257 1 2.7211268363738843e+00 1.0806361645691338e+01 1.3495432716096149e+01 0 0 0
209 1 8.1363769326607311e+00 8.1254763839112965e+00 1.0839627977766849e+01 0 0 0
252 1 9.4997020198955830e+00 9.4476640847003530e+00 1.2133867944052325e+01 0 0 0
2256 1 1.3533551921139559e+01 1.0774485939670527e+01 1.3501885030583985e+01 0 0 0
215 1 1.0891179284552917e+01 1.0762050455090858e+01 1.0837527951705587e+01 0 0 0
258 1 1.2790124825702860e+00 1.2240772437424484e+01 1.2236143110384765e+01 0 0 0
264 1 6.7487333800391749e+00 1.2324726421886826e+01 1.2176691452415600e+01 0 0 0
263 1 8.0951514329371239e+00 1.0923947931725099e+01 1.3471565024497091e+01 0 0 0
269 1 1.2194395774200546e+01 1.2180464878117334e+01 1.2121134617944524e+01 0 0 0
216 1 -2.9271011309404571e-02 1.6253749865578673e+01 1.0902199801075435e+01 0 0 0
261 1 3.9924896124371054e+00 1.4998877338338845e+01 1.2156937567610392e+01 0 0 0
262 1 5.3601871215965167e+00 1.3590394071109033e+01 1.3444065035860875e+01 0 0 0
267 1 9.3923958078520702e+00 1.4970406671212407e+01 1.2159141303621414e+01 0 0 0
273 1 1.2587716860973088e+00 1.7593299984067123e+01 1.2227358741249040e+01 0 0 0
279 1 6.7684946578101304e+00 1.7656907894757175e+01 1.2274399738926745e+01 0 0 0
219 1 8.1325941398340156e+00 1.8976187233034068e+01 1.0838070322441116e+01 0 0 0
284 1 1.2130823664206247e+01 1.7569617032828425e+01 1.2238588513537353e+01 0 0 0
2271 1 1.3541677454403374e+01 1.6307955829658102e+01 1.3495819625061976e+01 0 0 0
2216 1 1.3452549021637578e+01 1.8987840485744073e+01 1.0862130004303614e+01 0 0 0
287 1 2.7831974663285686e+00 2.1583143959570901e+01 1.3479239276799248e+01 0 0 0
276 1 4.0831170155146141e+00 2.0145818503920090e+01 1.2116404030763546e+01 0 0 0
282 1 9.5089225841559522e+00 2.0276534794835783e+01 1.2147166015473712e+01 0 0 0
288 1 1.3055877147147128e+00 2.2849194087993389e+01 1.2195350775473740e+01 0 0 0
286 1 1.0915208667303877e-01 2.4369141411913137e+01 1.3549696817610892e+01 0 0 0
292 1 5.3634412440264283e+00 2.4409991114893941e+01 1.3533834570368553e+01 0 0 0
294 1 6.7473309619348969e+00 2.2994408499752023e+01 1.2216719574467058e+01 0 0 0
2286 1 1.3521527608796010e+01 2.1739465924839376e+01 1.3488520560771764e+01 0 0 0
299 1 1.2149196606466511e+01 2.3046013396119253e+01 1.2098213080918846e+01 0 0 0
298 1 1.0859104738727865e+01 2.4386382276241690e+01 1.3543706468789868e+01 0 0 0
291 1 4.0130016007049285e+00 2.5761301255608828e+01 1.2112606939282680e+01 0 0 0
297 1 9.4031286219644272e+00 2.5730141870858279e+01 1.2217523034135306e+01 0 0 0
3226 1 1.3534291028663837e+01 2.7129505564597000e+01 1.3515721434117342e+01 0 0 0
230 1 4.0130627172543241e+00 1.2759496759925646e+00 1.4865532398962925e+01 0 0 0
236 1 9.4504839959859464e+00 1.2312273280543657e+00 1.4866374595876913e+01 0 0 0
317 1 1.0846894588747059e+01 -3.8334254379662980e-02 1.6258199011573566e+01 0 0 0
229 1 1.3748154913785240e+00 4.1438708890327787e+00 1.4862859268413693e+01 0 0 0
304 1 2.7554279569918174e+00 2.7294358824777301e+00 1.6131725025278843e+01 0 0 0
248 1 8.0313804417609180e+00 5.3185333957592462e+00 1.3569516770451031e+01 0 0 0
235 1 6.6448116328900673e+00 4.0167194584130090e+00 1.4915736793781418e+01 0 0 0
312 1 8.0876987578395987e+00 2.6733420451500445e+00 1.6180186174493517e+01 0 0 0
240 1 1.2147571266028439e+01 4.0904473981494931e+00 1.4824975040735250e+01 0 0 0
241 1 9.9752078359927054e-03 8.1099257194207937e+00 1.3589272052200464e+01 0 0 0
245 1 4.0591540779123330e+00 6.7553499158171251e+00 1.4915557415628298e+01 0 0 0
247 1 5.4127351540627320e+00 8.0414024985186323e+00 1.3575065390197206e+01 0 0 0
251 1 9.4620970431486953e+00 6.7031604952335169e+00 1.4836082433195637e+01 0 0 0
337 1 1.0763621489315190e+01 5.4048614498679486e+00 1.6219104930609021e+01 0 0 0
2322 1 1.3506853967033431e+01 7.9759494893655170e+00 1.6159855957088599e+01 0 0 0
244 1 1.3617560208972606e+00 9.5732852154956820e+00 1.4863866689463837e+01 0 0 0
324 1 2.7081084567936036e+00 8.1525992324708145e+00 1.6232364782523703e+01 0 0 0
250 1 6.7349080553283072e+00 9.4921036897259619e+00 1.4916994870322059e+01 0 0 0
255 1 1.2239396339093661e+01 9.4530420852102459e+00 1.4851765958150363e+01 0 0 0
357 1 1.0928424030410548e+01 1.0766853368765785e+01 1.6219395286903339e+01 0 0 0
260 1 4.0116128740199635e+00 1.2174393564397452e+01 1.4833184672616177e+01 0 0 0
266 1 9.5432058783341898e+00 1.2208111437279012e+01 1.4956927393101642e+01 0 0 0
352 1 8.1834591099274903e+00 1.3536610937395670e+01 1.6262429554263534e+01 0 0 0
272 1 2.6697675017066937e+00 1.6256664007468839e+01 1.3622276163396167e+01 0 0 0
259 1 1.3917740914286536e+00 1.4893319269681808e+01 1.4979057343375263e+01 0 0 0
265 1 6.7168628954661376e+00 1.4849393940828563e+01 1.4919614214835171e+01 0 0 0
278 1 8.0772028750076732e+00 1.6254637072285448e+01 1.3599274273340908e+01 0 0 0
268 1 1.0864149969511340e+01 1.3563091069794430e+01 1.3579379542909951e+01 0 0 0
270 1 1.2305398785676749e+01 1.4895878039131789e+01 1.4962302478882291e+01 0 0 0
364 1 2.5788128153350010e+00 1.8953265429851754e+01 1.6270851355905467e+01 0 0 0
275 1 4.0293595413104262e+00 1.7635600480428700e+01 1.4970798607461148e+01 0 0 0
277 1 5.4230430341448024e+00 1.8945587052221267e+01 1.3638189855467587e+01 0 0 0
281 1 9.4342278913159046e+00 1.7509723952319440e+01 1.4975615824003951e+01 0 0 0
283 1 1.0847932543841152e+01 1.8958200329659700e+01 1.3625589562112840e+01 0 0 0
274 1 1.2935665339561160e+00 2.0298290495027089e+01 1.4856380721206079e+01 0 0 0
280 1 6.7607638948572104e+00 2.0268367081776319e+01 1.5051832604159355e+01 0 0 0
293 1 8.1058937231574699e+00 2.1615834248491147e+01 1.3574477085231980e+01 0 0 0
285 1 1.2206820072291144e+01 2.0426652646978624e+01 1.4932367798723382e+01 0 0 0
290 1 3.9673782429138509e+00 2.2961269632764026e+01 1.4942381943719731e+01 0 0 0
296 1 9.4565110280446092e+00 2.3025100296134173e+01 1.4924428187465276e+01 0 0 0
397 1 1.0936045743241866e+01 2.1736133161643291e+01 1.6221000068873099e+01 0 0 0
289 1 1.3863679708482790e+00 2.5718560487707958e+01 1.4892141250019320e+01 0 0 0
1227 1 2.6738550074611829e+00 2.7135684910676073e+01 1.3571369242341715e+01 0 0 0
1233 1 8.1096035045826991e+00 2.7108798392472341e+01 1.3575350519749863e+01 0 0 0
295 1 6.8095380680556712e+00 2.5756913968897187e+01 1.4907984235424303e+01 0 0 0
300 1 1.2211454572227012e+01 2.5774915210640298e+01 1.4841543367551756e+01 0 0 0
301 1 8.9233382891819701e-02 1.3253063649685259e-02 1.6335634262193661e+01 0 0 0
302 1 -2.8375550094068558e-03 2.6541372279632980e+00 1.8969079761638920e+01 0 0 0
305 1 1.4009464151459881e+00 1.3308483155929085e+00 1.7582753668217642e+01 0 0 0
303 1 2.7275947401149767e+00 -2.6712355165850063e-02 1.8946113276600681e+01 0 0 0
313 1 6.8239974450266931e+00 1.2537653983801418e+00 1.7576587876598655e+01 0 0 0
319 1 1.2150300011138533e+01 1.3667795596026620e+00 1.7631695214337700e+01 0 0 0
308 1 4.0925666880166647e+00 4.1045246280941230e+00 1.7584334669231534e+01 0 0 0
310 1 5.4285869663557600e+00 2.7591238825087943e+00 1.8902239263994968e+01 0 0 0
316 1 9.3623002039931347e+00 3.9957111695009484e+00 1.7595552253903147e+01 0 0 0
2302 1 1.3450590725457108e+01 2.7358537550378079e+00 1.6310593126507097e+01 0 0 0
325 1 1.3766095668571374e+00 6.7422070111467063e+00 1.7602073908649178e+01 0 0 0
321 1 1.7166180239357232e-02 5.4301091456485926e+00 1.6301977200657504e+01 0 0 0
329 1 5.4700560121286976e+00 5.4444349411652198e+00 1.6334236696684201e+01 0 0 0
333 1 6.8137628193306297e+00 6.7742964387556937e+00 1.7719265929916805e+01 0 0 0
332 1 8.1947809734154742e+00 8.0965930624130689e+00 1.6314185925801734e+01 0 0 0
339 1 1.2199154106334120e+01 6.7416794698947609e+00 1.7570502923261099e+01 0 0 0
328 1 3.9874825138110035e+00 9.5078664669069095e+00 1.7683443982663729e+01 0 0 0
336 1 9.5296093614748898e+00 9.4328090859249247e+00 1.7628001225832193e+01 0 0 0
343 1 2.6184988497619379e+00 1.0912459170134181e+01 1.8905491711348606e+01 0 0 0
345 1 1.2316497551590035e+00 1.2259045553309965e+01 1.7690889084616728e+01 0 0 0
349 1 5.3782164249018489e+00 1.0844266387771485e+01 1.6276122229535400e+01 0 0 0
344 1 2.6768144111666139e+00 1.3412977402227817e+01 1.6322171641691174e+01 0 0 0
353 1 6.7198334370014567e+00 1.2244329435041532e+01 1.7638633324547197e+01 0 0 0
358 1 1.0812018727122982e+01 1.3513146752874540e+01 1.8961883551675925e+01 0 0 0
351 1 8.1386669122832913e+00 1.0859143524571660e+01 1.8953113386673451e+01 0 0 0
359 1 1.2163523868147619e+01 1.2172224818609360e+01 1.7594928314253675e+01 0 0 0
348 1 4.0489803850184893e+00 1.4927440845828981e+01 1.7604186664009500e+01 0 0 0
369 1 5.4337820571456108e+00 1.6245363671278554e+01 1.6291861915938394e+01 0 0 0
356 1 9.5164090685626110e+00 1.4912528216443112e+01 1.7663336165519929e+01 0 0 0
377 1 1.0902927065396518e+01 1.6215530617220107e+01 1.6289812223664516e+01 0 0 0
365 1 1.1952980841201406e+00 1.7572208347453163e+01 1.7474901074104480e+01 0 0 0
363 1 2.5978512717789108e+00 1.6330590754420331e+01 1.8954940758619177e+01 0 0 0
373 1 6.7437414523483561e+00 1.7610721669239638e+01 1.7631464646126524e+01 0 0 0
372 1 8.2697790326552578e+00 1.8984523318621960e+01 1.6355380502580257e+01 0 0 0
371 1 8.1239137635339169e+00 1.6366680016385068e+01 1.8974795335138108e+01 0 0 0
379 1 1.2245419767041273e+01 1.7690084078672747e+01 1.7575309352722652e+01 0 0 0
389 1 5.3610118725459630e+00 2.1665791313141654e+01 1.6394794723889248e+01 0 0 0
368 1 3.9106512288445350e+00 2.0199917750682449e+01 1.7714199054264501e+01 0 0 0
376 1 9.6403066675982529e+00 2.0384185292314669e+01 1.7666466397682953e+01 0 0 0
385 1 1.2464938106062415e+00 2.3077897810845219e+01 1.7618057503014864e+01 0 0 0
384 1 2.7014666092556756e+00 2.4390425995434857e+01 1.6305017747483255e+01 0 0 0
393 1 6.6685806718854153e+00 2.3077251869032654e+01 1.7684970534843927e+01 0 0 0
391 1 8.1285825790849113e+00 2.1780443796523578e+01 1.8943139057996714e+01 0 0 0
392 1 8.1380211143261718e+00 2.4339655993897988e+01 1.6365161817277638e+01 0 0 0
399 1 1.2200254898433831e+01 2.3072684510414657e+01 1.7686774163227732e+01 0 0 0
1303 1 2.6027991376487813e+00 2.7107333752685072e+01 1.8962630978908837e+01 0 0 0
388 1 3.9893188060465228e+00 2.5743680588265072e+01 1.7631974370743396e+01 0 0 0
1309 1 5.3323332606471361e+00 2.7017953912422865e+01 1.6293399520678705e+01 0 0 0
396 1 9.5111195247108071e+00 2.5782558263748477e+01 1.7693087832257277e+01 0 0 0
401 1 7.1247905059124150e-04 7.5398047173749205e-02 2.1700844008243855e+01 0 0 0
307 1 4.0975613700849767e+00 1.3752211609475740e+00 2.0306710822834059e+01 0 0 0
315 1 9.4048054579827198e+00 1.3380894575616982e+00 2.0298419477758362e+01 0 0 0
306 1 1.3245010453112009e+00 4.0764825135092808e+00 2.0320562338729211e+01 0 0 0
402 1 2.6864196158614697e+00 2.7321697609651912e+00 2.1630392840137866e+01 0 0 0
314 1 6.8167625124085349e+00 4.0586529750970062e+00 2.0353414130444815e+01 0 0 0
318 1 1.0726237142306248e+01 2.7529294492127270e+00 1.9009199510942487e+01 0 0 0
320 1 1.2207070128252667e+01 4.1903879704453022e+00 2.0308661153916958e+01 0 0 0
2401 1 1.3527777087371552e+01 2.8464699979770254e+00 2.1646936662888212e+01 0 0 0
322 1 4.3839254435836389e-03 8.0698557834086397e+00 1.9023176473043510e+01 0 0 0
323 1 2.6852348953525520e+00 5.4173549135536305e+00 1.9030913095164529e+01 0 0 0
327 1 4.0869744145060922e+00 6.8687590424666389e+00 2.0353264957129010e+01 0 0 0