# LAMMPS data file written by OVITO
8000 atoms
1 atom types
-26.3116493 26.3116493 xlo xhi
-26.3114491 26.3114491 ylo yhi
-26.3112507 26.3112507 zlo zhi

Atoms # atomic

1 1 -24.9741384 -25.0962963 -25.0729847
2 1 -19.8357201 -25.0258293 -25.0736122
3 1 -21.1123085 -23.7171192 -23.65374
4 1 -15.7588358 -26.2724896 -26.2468224
5 1 -15.7243157 -23.6174145 -23.6514893
6 1 -14.4260464 -24.932518 -25.0015392
7 1 -14.4607249 -1.2350063 -17.1478844
8 1 -26.276331 -23.7430516 -23.7844506
9 1 -22.423729 -22.3735314 -24.9709874
10 1 -17.1952419 -22.4085922 -25.0051498
11 1 -15.8067236 -21.0378456 -26.3068428
12 1 -24.9717294 -19.7136956 -24.9658928
13 1 -19.7491551 -19.7599507 -25.0767841
14 1 -21.1407471 -21.1060124 -26.3013039
15 1 -14.5187683 -19.7419548 -24.9918938
16 1 -15.8201952 -2.5448437 -18.3285751
17 1 -22.3687973 -17.1682739 -24.8854066
18 1 -17.2362862 -17.1491699 -25.0513306
19 1 -15.8101435 -15.7366667 -26.3045616
20 1 -25.050642 -14.5648604 -25.0415325
21 1 -21.0639687 -15.8087607 -26.2564106
22 1 -23.7155781 -13.2528143 -26.2883129
23 1 -19.8007794 -14.5193939 -24.911686
24 1 -14.413311 -14.5603876 -24.9580898
25 1 -26.2220364 -13.1387796 -23.6863938
26 1 -18.4455185 -0.1794453 -18.3926163
27 1 -22.2866612 -11.9578686 -24.9480076
28 1 -18.4680424 -13.2254496 -26.1832733
29 1 -17.0424232 -11.8577806 -24.9324304
30 1 -15.7837267 -0.0254688 -20.987959
31 1 -24.888878 -9.2582626 -24.9202004
32 1 -19.6228066 -9.2568932 -24.9669456
33 1 -14.4838257 -9.1820107 -25.0754585
34 1 -19.7772045 -1.4346581 -17.0503216
35 1 -26.2219162 -7.8896466 -23.7535076
36 1 -15.7175799 -26.2689533 -15.822218
37 1 -22.3805256 -6.6105404 -24.9873944
38 1 -15.7086859 -0.0439396 -26.2552605
39 1 -20.9950124 -7.940323 -23.6736431
40 1 -16.899025 -6.6260109 -24.976492
41 1 -26.2556324 -0.0436249 -26.2912922
42 1 -18.333168 -7.8711224 -26.2730293
43 1 -24.8718872 -3.9140912 -24.9687138
44 1 -19.696743 -3.8763084 -24.9991188
45 1 -15.7572575 -2.6122532 -23.6665287
46 1 -14.5018759 -3.990551 -24.9960098
47 1 -26.3070717 -2.6594029 -23.6798573
48 1 -22.3178826 -1.2759476 -24.981617
49 1 -21.0976334 -2.693346 -23.5713349
50 1 -17.0837326 -1.3140984 -24.9581624
51 1 -26.2807217 -5.265604 -21.0406857
52 1 -26.2979412 -18.3224526 -18.3673573
53 1 -21.0546608 -0.0174713 -15.8095885
54 1 -22.4487305 -25.0481148 -22.3845806
55 1 -26.2094498 -15.7549277 -20.956648
56 1 -18.5527115 -26.2538986 -23.622694
57 1 -17.1606674 -24.9792004 -22.4337826
58 1 -18.3371678 -23.6837883 -21.0412121
59 1 -25.0011177 -22.4369049 -22.3686199
60 1 -23.7117806 -21.0913258 -23.5915776
61 1 -19.7596283 -22.4432602 -22.3112202
62 1 -18.4381523 -21.0430546 -23.6411953
63 1 -14.5764437 -22.2191506 -22.4027043
64 1 -26.3014259 -18.4566384 -23.6736737
65 1 -22.3900566 -19.8308335 -22.2888336
66 1 -17.0989933 -19.8248883 -22.3153553
67 1 -15.8507166 -18.4332218 -23.6399803
68 1 -15.7745705 -20.978119 -20.9769078
69 1 -24.9113484 -17.1197014 -22.3238964
70 1 -23.6977444 -15.7810278 -23.6803627
71 1 -21.1051159 -18.5945645 -23.6025658
72 1 -19.7139511 -17.2138443 -22.2698956
73 1 -18.5010357 -15.8347035 -23.6762467
74 1 -14.4711437 -17.1479607 -22.4232788
75 1 -25.0200844 -1.2836838 -17.1176262
76 1 -22.4074593 -14.5330239 -22.3391266
77 1 -21.0266914 -13.2164517 -23.5710964
78 1 -17.0838394 -14.4796639 -22.3399086
79 1 -13.1699276 -13.1840887 -20.9678574
80 1 -24.8983974 -11.8921968 -22.3048744
81 1 -23.5816899 -10.6134596 -23.6402855
82 1 -19.717844 -11.8463622 -22.2959061
83 1 -18.4172058 -10.5248957 -23.569418
84 1 -15.7183161 -13.1986647 -23.6339646
85 1 -14.4314661 -11.8459406 -22.3386421
86 1 -22.3295345 -9.2272148 -22.2997589
87 1 -21.0787201 -10.5445767 -20.97575
88 1 -17.1049404 -9.2020607 -22.3600311
89 1 -15.7308407 -7.9040108 -23.6516781
90 1 -24.991888 -6.6240654 -22.3751507
91 1 -19.6795349 -6.5595494 -22.4555893
92 1 -18.2442875 -5.2868118 -23.7075463
93 1 -23.6939564 -0.0118408 -18.4709187
94 1 -14.3961563 -6.6039639 -22.3184548
95 1 -23.6771374 -5.3249111 -23.6661072
96 1 -22.3600502 -4.0390186 -22.302021
97 1 -21.0068512 -5.3139134 -20.9924832
98 1 -17.007061 -3.9545574 -22.3262215
99 1 -23.6140995 -2.6544571 -21.0716171
100 1 -25.0470905 -1.3501988 -22.357069
101 1 -23.684042 -0.0401516 -23.6765423
102 1 -19.7082138 -1.2833157 -22.3011112
103 1 -18.3845806 -2.634512 -21.0512943
104 1 -18.4107342 -0.0351524 -23.6945286
105 1 -18.4830914 -5.2356625 -18.3802509
106 1 -14.483037 -1.3755093 -22.3836708
107 1 -24.9817734 -25.0162621 -19.6349297
108 1 -19.6283856 -25.0045853 -19.7355957
109 1 -18.3728466 -26.2984066 -18.3741989
110 1 -14.4934559 -25.064045 -19.8420506
111 1 -13.2279711 -23.6896706 -21.1711693
112 1 -17.1786652 -3.8869896 -17.083107
113 1 -23.7390328 -23.751545 -21.0672035
114 1 -22.3590603 -22.5448914 -19.7189675
115 1 -21.1214981 -21.1800594 -21.0482101
116 1 -17.0428963 -22.3831806 -19.7029686
117 1 -23.658104 -18.5344696 -20.9702244
118 1 -24.9878884 -19.8005753 -19.6612396
119 1 -19.8173027 -19.8512516 -19.7233868
120 1 -18.4250489 -18.4988957 -21.0100594
121 1 -21.0581665 -18.540783 -18.3129463
122 1 -14.423625 -19.6483898 -19.6809197
123 1 -22.2915878 -17.1755867 -19.7586441
124 1 -21.0284271 -15.7200909 -21.0782318
125 1 -18.381897 -15.8662244 -18.3036308
126 1 -15.8015137 -15.818759 -21.0249519
127 1 -17.1474609 -17.1379089 -19.6826058
128 1 -24.8293877 -14.5741215 -19.6894455
129 1 -23.5758381 -13.1926127 -20.9662782
130 1 -19.6837979 -14.4844008 -19.6175099
131 1 -18.4119454 -13.161829 -20.9866944
132 1 -14.4417277 -14.5878048 -19.6432953
133 1 -22.2562714 -11.9038258 -19.6381912
134 1 -21.0433197 -13.1971388 -18.3252602
135 1 -15.8153534 -10.6220904 -21.0788002
136 1 -17.0686302 -11.834363 -19.6335068
137 1 -23.7429428 -7.9606858 -20.9847488
138 1 -25.0423431 -9.2191639 -19.6642914
139 1 -19.7057934 -9.2223721 -19.7420159
140 1 -18.3870011 -10.5659943 -18.3908806
141 1 -13.1739798 -8.018362 -21.0155849
142 1 -14.5543413 -9.2592106 -19.6836052
143 1 -23.7501889 -5.2265053 -18.4286633
144 1 -22.4413796 -6.5912285 -19.7399636
145 1 -21.0761261 -7.9002762 -18.405983
146 1 -18.3863182 -7.7790318 -21.0687656
147 1 -17.1033611 -6.4608803 -19.7211762
148 1 -15.8268786 -7.8338127 -18.3673058
149 1 -22.4597931 -3.8877278 -17.1509895
150 1 -25.024641 -3.8814126 -19.808794
151 1 -19.8076725 -3.955925 -19.7382794
152 1 -15.7128439 -5.2349777 -20.971119
153 1 -14.4236775 -3.9402982 -19.6814461
154 1 -22.3455429 -1.286789 -19.8097935
155 1 -21.0944233 -2.6557732 -18.4483433
156 1 -17.1219902 -1.3825092 -19.7122841
157 1 -13.2102375 -2.655035 -20.987959
158 1 -14.5496578 -6.4870358 -17.1036816
159 1 -26.2883186 -23.720398 -18.3799877
160 1 -26.3032284 -10.4974795 -21.0019035
161 1 -22.3539829 -25.0441895 -17.1501465
162 1 -20.958334 -23.7187615 -18.4706574
163 1 -17.141407 -24.9337922 -17.0482693
164 1 -25.033493 -22.4260102 -17.0286407
165 1 -23.6035862 -21.1337299 -18.3646202
166 1 -19.7360001 -22.4138298 -17.1193619
167 1 -18.4186802 -21.0970154 -18.3996163
168 1 -15.7398396 -23.7824555 -18.4372406
169 1 -14.4846678 -22.5128117 -17.0915794
170 1 -22.3983498 -19.7855263 -16.9987526
171 1 -13.1630869 -10.5742026 -18.3516235
172 1 -17.1280403 -19.7149582 -17.0748444
173 1 -15.8010922 -21.0447388 -15.8129034
174 1 -15.8403502 -18.4335385 -18.3819866
175 1 -23.6059952 -15.9029026 -18.3409424
176 1 -25.0124016 -17.1335411 -16.9803334
177 1 -13.1689806 -18.3651276 -20.9621736
178 1 -19.8016739 -17.1961098 -17.0045395
179 1 -14.589283 -17.0847607 -17.0257473
180 1 -26.254097 -13.2251349 -18.4867058
181 1 -22.3275337 -14.5911722 -17.1096802
182 1 -17.0771027 -14.5461264 -16.9715462
183 1 -24.9680234 -11.9689208 -16.9963838
184 1 -23.7475472 -10.6245098 -18.3791981
185 1 -19.6903763 -11.9292432 -17.1003647
186 1 -15.7596255 -13.2434464 -18.3905125
187 1 -13.1809788 -21.1038399 -18.4098778
188 1 -14.5376072 -11.8958274 -17.0715809
189 1 -13.1775055 -10.5459433 -23.7291794
190 1 -22.4063263 -9.2915726 -17.1279926
191 1 -21.1128044 -10.6928673 -15.8464252
192 1 -17.1200943 -9.2341614 -17.1006279
193 1 -13.1833468 -7.8362866 -15.8159561
194 1 -25.0811806 -6.5708637 -17.174984
195 1 -26.2781239 -5.3022308 -15.8325844
196 1 -19.8216172 -6.5458145 -17.1263619
197 1 -21.2027683 -5.2727623 -15.8843126
198 1 -13.2368651 -18.3632336 -26.215025
199 1 -13.2043953 -20.922865 -23.663044
200 1 -13.2077637 -18.4640064 -15.8115349
201 1 -23.6373959 -13.3219605 -15.830638
202 1 -13.1841364 -13.1348848 -15.8223238
203 1 -23.6257515 -7.8813306 -15.8312159
204 1 -23.8007183 -2.60215 -15.8063259
205 1 -15.9411756 -5.2413464 -15.7875929
206 1 -13.2274447 -2.5531044 -15.8334265
207 1 -26.2809143 -10.5986729 -15.8026953
208 1 -23.7704602 -23.668705 -26.2686539
209 1 -23.5920563 -2.5919934 -26.3094807
210 1 -23.7239399 -18.4024372 -26.283289
211 1 -21.0083256 -10.5618887 -26.2033501
212 1 -21.0465832 -5.2913914 -26.27841
213 1 -25.0768814 -25.0110474 -14.4432459
214 1 -21.043005 -23.7193089 -12.981392
215 1 -19.7573128 -25.0667076 -14.3416319
216 1 -18.4795132 -23.670332 -15.7175522
217 1 -14.4278345 -24.9965192 -14.4227753
218 1 -14.5393963 -1.2370072 -6.5499764
219 1 -15.831193 -2.5611553 -7.969099
220 1 -23.6220665 -21.096693 -13.0988464
221 1 -22.2860508 -22.4126759 -14.4189329
222 1 -17.0930481 -22.4220581 -14.4772921
223 1 -15.7475224 -23.6416531 -13.1117907
224 1 -24.9705868 -19.7299023 -14.4168816
225 1 -23.6732273 -18.4603234 -15.6178322
226 1 -19.7230549 -19.7472687 -14.3061113
227 1 -18.2528649 -21.1120434 -13.0492229
228 1 -14.4416752 -19.7565308 -14.440404
229 1 -15.8616096 -0.0198917 -10.5349188
230 1 -22.4220085 -17.1503811 -14.3484726
231 1 -21.0959644 -18.4684792 -13.0350676
232 1 -18.4495697 -18.4902134 -15.7124472
233 1 -17.1031513 -17.1493816 -14.3454199
234 1 -15.7274723 -18.4755306 -13.0790596
235 1 -24.961588 -14.5133429 -14.4389305
236 1 -19.7081623 -1.3376751 -6.5883885
237 1 -19.7844124 -14.486558 -14.5011826
238 1 -18.4112091 -15.842124 -13.1865149
239 1 -15.8300877 -15.8477012 -15.671876
240 1 -14.5271349 -14.4008875 -14.424985
241 1 -26.2939453 -13.1718273 -13.0956888
242 1 -18.2699146 -26.2610035 -13.1409435
243 1 -22.4345379 -11.9211912 -14.5165482
244 1 -17.1340408 -11.8978272 -14.3824663
245 1 -23.6388378 -0.0424652 -13.2549238
246 1 -24.9451542 -9.1987991 -14.511549
247 1 -13.2510729 -5.2217693 -13.169939
248 1 -21.1002121 -7.998417 -13.035593
249 1 -19.8805562 -9.360878 -14.4866057
250 1 -18.5387154 -7.952057 -15.7669115
251 1 -24.9623928 -1.336359 -6.497984
252 1 -14.4731436 -9.1603317 -14.5241261
253 1 -22.4164677 -6.5306072 -14.4246693
254 1 -17.141304 -6.5652333 -14.4224596
255 1 -25.0157051 -3.9792386 -14.4352465
256 1 -13.1699276 -5.2897587 -7.9898854
257 1 -23.7991238 -5.2208233 -13.1425228
258 1 -19.8182507 -4.0469646 -14.4822378
259 1 -18.4828282 -2.6384068 -15.7292338
260 1 -15.8650828 -7.9542142 -7.8699056
261 1 -14.5478163 -3.9224052 -14.5758543
262 1 -19.8379307 -6.5994377 -6.5071926
263 1 -22.4122849 -1.3384094 -14.5760651
264 1 -26.290947 -7.9344292 -13.186883
265 1 -17.1965046 -1.2644234 -14.4480343
266 1 -25.0134754 -6.7018414 -6.533453
267 1 -26.2734547 -2.6397228 -13.1846199
268 1 -22.3515835 -25.0429382 -11.7496577
269 1 -23.7068444 -23.7394676 -10.5744915
270 1 -20.9933282 -26.2420597 -10.4990845
271 1 -23.7856255 -5.2217693 -7.8205452
272 1 -17.067421 -24.9312668 -11.7954922
273 1 -25.0153313 -22.3803864 -11.7469216
274 1 -19.6564865 -22.3269386 -11.7477103
275 1 -21.102005 -21.0028515 -10.4570389
276 1 -18.3265896 -23.6398697 -10.4119396
277 1 -14.3610029 -22.390028 -11.7443428
278 1 -22.4902611 -19.7179585 -11.7973871
279 1 -16.9850656 -19.7849465 -11.6954031
280 1 -15.6635876 -21.0852795 -10.4554062
281 1 -26.3080254 -18.3741799 -13.115159
282 1 -25.0174217 -17.0369797 -11.8178559
283 1 -19.770258 -17.13591 -11.7760201
284 1 -14.4185734 -17.1068611 -11.7947016
285 1 -23.6491623 -15.716197 -13.0910578
286 1 -22.3203087 -14.4445639 -11.7987013
287 1 -21.1000481 -13.0954189 -13.1356812
288 1 -17.1496697 -14.5501786 -11.8497982
289 1 -15.8582946 -13.1882982 -13.0484858
290 1 -25.0008774 -11.821208 -11.7656546
291 1 -26.2996941 -10.4355412 -10.498662
292 1 -23.6457367 -10.4580651 -13.1233673
293 1 -19.7988854 -11.8199978 -11.7949648
294 1 -18.4988785 -10.5367346 -13.1522045
295 1 -14.4502526 -11.8493606 -11.8103848
296 1 -22.3956337 -9.2127972 -11.6002627
297 1 -17.18256 -9.2544747 -11.930152
298 1 -25.0790176 -6.6403256 -11.7831784
299 1 -19.7565747 -6.6574803 -11.7860203
300 1 -18.4161015 -5.317543 -13.0926361
301 1 -21.0732307 -5.3199654 -10.515029
302 1 -15.8342982 -7.9148522 -13.1482573
303 1 -14.547658 -6.5558663 -11.841694
304 1 -23.665577 -2.5875206 -10.5462857
305 1 -22.4041863 -3.991604 -11.816803
306 1 -21.1483154 -2.6914501 -13.2264557
307 1 -17.2142391 -3.9713974 -11.7772312
308 1 -15.9023924 -2.5785218 -13.2317171
309 1 -15.8150902 -5.2879162 -10.4573536
310 1 -26.22892 -0.0245209 -10.5808583
311 1 -24.9184896 -1.3617764 -11.8811608
312 1 -20.9701214 -0.0237331 -10.6182728
313 1 -19.795044 -1.4138718 -11.9251538
314 1 -14.58039 -1.2762108 -11.9668828
315 1 -25.0009823 -24.9486276 -9.2123051
316 1 -13.2130785 -2.6580868 -5.39007
317 1 -19.6637993 -24.9816114 -9.1410027
318 1 -18.432415 -5.2288227 -7.7768688
319 1 -14.3855782 -25.0744839 -9.164999
320 1 -15.7457857 -23.6924172 -7.7936554
321 1 -22.3784104 -22.4462242 -9.244669
322 1 -17.0372658 -22.3270645 -9.096693
323 1 -26.2248249 -21.0396881 -10.4538803
324 1 -24.9184056 -19.7243767 -9.12953
325 1 -19.6666947 -19.6445484 -9.1691036
326 1 -17.0951519 -3.8265801 -6.5216637
327 1 -14.4101009 -19.6523896 -9.1529484
328 1 -26.2692776 -18.4632702 -7.898901
329 1 -23.6726017 -18.3424473 -10.4784031
330 1 -23.7390538 -15.7794495 -7.7789727
331 1 -22.4448738 -17.0074577 -9.0052357
332 1 -18.3792133 -18.4116478 -10.5578633
333 1 -17.125988 -17.1292801 -9.2297249
334 1 -15.8362446 -18.3583393 -7.8775368
335 1 -26.2706413 -15.7718191 -10.4909277
336 1 -24.9527684 -14.521184 -9.2223568
337 1 -21.0424786 -15.7615576 -10.4144144
338 1 -19.6979523 -14.4818735 -9.1316891
339 1 -15.8006716 -15.8102865 -10.5121336
340 1 -14.5704975 -14.4628773 -9.1734161
341 1 -23.6406212 -13.1572504 -10.5009785
342 1 -22.357214 -11.8624126 -9.1317406
343 1 -18.4475708 -13.1620922 -10.5065041
344 1 -17.0677872 -11.7855301 -9.193203
345 1 -24.938202 -9.237793 -9.1100063
346 1 -23.7551365 -10.5531016 -7.7819729
347 1 -21.013588 -10.5211067 -10.3769474
348 1 -19.7625218 -9.1260204 -9.1970978
349 1 -18.3862648 -7.9765264 -10.4531451
350 1 -15.8013554 -10.4896908 -10.5655976
351 1 -14.50698 -9.1926403 -9.1807308
352 1 -23.685442 -7.8773862 -10.4169932
353 1 -22.4299279 -6.4567757 -9.1689968
354 1 -17.1671944 -6.5474472 -9.1834679
355 1 -13.2585459 -7.9337426 -10.5537586
356 1 -25.0208054 -3.8924638 -9.2453003
357 1 -18.556448 -2.6465092 -10.5134497
358 1 -19.7934647 -4.0296516 -9.175417
359 1 -14.5253983 -3.947403 -9.2376175
360 1 -22.3113632 -1.2557392 -9.227829
361 1 -13.1931343 -13.1122046 -10.455513
362 1 -17.2080803 -1.241848 -9.3092365
363 1 -13.2855406 -2.6196728 -10.626009
364 1 -22.3336392 -25.0943394 -6.6177006
365 1 -13.177453 -15.732194 -13.1728859
366 1 -17.0712624 -25.0363903 -6.4951954
367 1 -24.910328 -22.3885594 -6.5482388
368 1 -21.0498409 -23.7054425 -7.9153194
369 1 -19.7270546 -22.3467827 -6.6307507
370 1 -14.5569201 -6.5748616 -6.6484318
371 1 -14.3949452 -22.2905121 -6.5159283
372 1 -23.6375542 -21.0744133 -7.9126358
373 1 -22.3047161 -19.7706337 -6.5566578
374 1 -21.0855083 -18.3830719 -7.7831307
375 1 -18.4831963 -21.0664825 -7.8294926
376 1 -17.0544739 -19.7235356 -6.4636746
377 1 -17.1173058 -9.1527004 -6.4364681
378 1 -25.0999146 -17.074604 -6.5481339
379 1 -23.6636601 -18.4153309 -5.321188
380 1 -19.6891651 -17.0919685 -6.4358368
381 1 -14.5065069 -17.0575027 -6.6444321
382 1 -26.2087975 -13.2127152 -7.7975502
383 1 -22.3904877 -3.865099 -6.5551319
384 1 -22.4226303 -14.4265671 -6.4774094
385 1 -18.3591118 -15.7978678 -7.8013916
386 1 -17.087101 -14.4053602 -6.5322933
387 1 -25.0420761 -11.8056307 -6.4889336
388 1 -21.0638123 -13.1981916 -7.8358059
389 1 -19.707058 -11.826417 -6.5506058
390 1 -15.802145 -13.0487423 -7.8509618
391 1 -14.3848419 -11.7887402 -6.5349255
392 1 -21.1239758 -2.5850983 -7.9866754
393 1 -22.3728581 -9.2256889 -6.522295
394 1 -18.3938942 -10.4202814 -7.7805519
395 1 -21.1653862 -7.8870678 -7.90769
396 1 -13.1990805 -7.9003812 -5.3845444
397 1 -23.6539727 -23.7366848 -15.6731911
398 1 -20.9395466 -21.0727444 -15.6866627
399 1 -21.1151466 -15.860857 -15.7291813
400 1 -18.4392033 -13.1739845 -15.7295494
401 1 -15.7909365 -10.5407353 -15.6559315
402 1 -24.9809896 -25.0102539 -4.0047302
403 1 -23.7087746 -23.7782517 -5.2427273
404 1 -14.5902834 -1.3117848 3.8625432
405 1 -26.3037987 -18.3766518 2.6373863
406 1 -19.7638378 -25.0668488 -4.0034676
407 1 -26.3065872 -23.6268177 2.6410713
408 1 -14.3024864 -24.934391 -3.9312688
409 1 -26.2711716 -21.0925102 -5.1753178
410 1 -22.3590088 -22.4175186 -3.8882772
411 1 -21.0938282 -23.7285443 -2.598814
412 1 -21.0184822 -21.0569687 -5.1775799
413 1 -17.1027298 -22.4209175 -3.9051152
414 1 -24.9434128 -19.6739655 -3.8291817
415 1 -18.3491135 -21.0740871 -2.5527172
416 1 -19.6717987 -19.7648983 -3.866438
417 1 -18.363636 -18.4071217 -5.1266422
418 1 -14.4181519 -19.6496525 -3.946108
419 1 -22.3754425 -17.1518021 -3.7979775
420 1 -21.1053047 -15.7693987 -5.1464806
421 1 -17.0072708 -16.9806728 -3.8864346
422 1 -25.0135479 -14.4955035 -3.8447056
423 1 -23.7969933 -13.1629343 -5.157217
424 1 -19.7879391 -14.4642983 -3.888855
425 1 -18.4121552 -13.1837196 -5.1667404
426 1 -15.7531529 -15.7646103 -5.2196789
427 1 -14.3606882 -14.4972925 -3.85886
428 1 -21.0738411 -0.0287838 5.2474098
429 1 -22.385725 -11.8774614 -3.8924866
430 1 -21.0839081 -10.6084605 -5.2267838
431 1 -15.6873207 -13.2242928 -2.5924473
432 1 -17.0466862 -11.8584642 -3.946846
433 1 -25.0400696 -9.1903782 -3.8432846
434 1 -23.6766167 -7.9546356 -5.1714764
435 1 -19.8031998 -9.3310394 -3.9247972
436 1 -15.7602043 -10.4737978 -5.1607418
437 1 -14.4221516 -9.0952358 -3.9869958
438 1 -21.1442108 -7.949688 -2.693903
439 1 -22.4613877 -6.4607754 -3.9143772
440 1 -18.4701462 -7.8476524 -5.1024876
441 1 -17.1617203 -6.5106621 -3.9400044
442 1 -24.9245416 -3.909935 -3.8665428
443 1 -23.6314926 -2.5785218 -5.1631107
444 1 -21.0787773 -5.1121559 -5.2238884
445 1 -19.7318955 -3.8521024 -3.9241124
446 1 -15.8252468 -5.2307682 -5.2280979
447 1 -14.521452 -3.8889904 -3.9930478
448 1 -13.1696653 -5.1863556 -2.7296868
449 1 -22.3940239 -1.2846298 -3.8399696
450 1 -26.2688923 -26.2382469 5.1909447
451 1 -17.0263748 -1.2202721 -3.8849088
452 1 -18.3846855 -2.5555783 -5.2486725
453 1 -22.3018685 -25.0947819 -1.2836743
454 1 -26.2962513 -5.2122975 0.0061569
455 1 -26.2538281 -26.267046 -0.0275211
456 1 -17.0368462 -25.0200825 -1.3709755
457 1 -15.7211581 -23.6710739 -2.6200733
458 1 -25.0247154 -22.3796234 -1.2775707
459 1 -26.2918987 -23.7401104 -2.5639267
460 1 -20.9558068 -21.135561 -0.0025272
461 1 -18.3420601 -23.7515927 0.0667763
462 1 -19.5700779 -22.4439984 -1.2467327
463 1 -14.3727913 -22.3456669 -1.2701492
464 1 -23.6728058 -21.0231628 -2.6332302
465 1 -22.2366905 -19.8136788 -1.3005657
466 1 -18.3396931 -18.2796173 0.0767231
467 1 -15.7654143 -21.0415287 0.096405
468 1 -16.960331 -19.5813484 -1.2779369
469 1 -19.8359318 -1.4437619 3.9130096
470 1 -25.0320091 -17.0537128 -1.204319
471 1 -24.9181004 -1.2428475 4.0502491
472 1 -20.9661752 -18.3792839 -2.5450878
473 1 -19.7179489 -17.1295433 -1.2015286
474 1 -15.6643248 -18.2710381 -2.6655407
475 1 -14.3882628 -17.0580292 -1.2948818
476 1 -23.7104321 -15.8241263 -2.5844498
477 1 -15.896183 -2.6536675 2.6808529
478 1 -17.1356716 -4.0147591 3.9949952
479 1 -22.455555 -14.4360924 -1.2565727
480 1 -21.0985107 -13.130518 -2.5176697
481 1 -18.4026833 -15.7982884 -2.5050946
482 1 -15.7513104 -15.7917633 0.0779343
483 1 -18.4809342 -13.0911036 0.0226803
484 1 -17.025322 -14.4532471 -1.2332611
485 1 -24.9820748 -11.7690583 -1.205267
486 1 -23.7775593 -10.5132656 -2.5174599
487 1 -19.7790451 -11.8487816 -1.2676754
488 1 -18.3767395 -10.5197907 -2.6026039
489 1 -14.4777746 -11.6883354 -1.3310852
490 1 -18.4815655 -5.3120709 2.6694851
491 1 -22.3535824 -9.220005 -1.3482418
492 1 -17.0859432 -9.1848011 -1.2654667
493 1 -15.7755175 -7.8885938 -2.6723805
494 1 -24.9672604 -6.612278 -1.2186318
495 1 -19.8647156 -6.6395893 -1.3356648
496 1 -14.54387 -6.5483418 -1.3338757
497 1 -23.6976872 -5.2307167 -2.5751343
498 1 -21.040741 -2.5916252 -2.563242
499 1 -22.3381214 -3.9686624 -1.235735
500 1 -18.5514488 -5.1859341 -2.6223374
501 1 -17.1927681 -3.8943578 -1.2805176
502 1 -15.7683611 -2.6244622 -2.5739765
503 1 -25.0445957 -1.3652477 -1.293356
504 1 -23.727192 -0.024786 -2.5586128
505 1 -19.7783089 -1.225378 -1.2812519
506 1 -26.2993317 -10.525158 -5.2026291
507 1 -14.4999819 -1.2547932 -1.3595543
508 1 -24.9925728 -24.9423276 1.3415566
509 1 -21.0241127 -23.6670113 2.6391239
510 1 -19.6739578 -25.0056648 1.3802872
511 1 -18.3913174 -26.2531395 2.6853791
512 1 -14.4415703 -24.9763528 1.2749367
513 1 -15.8411388 -23.8135872 2.61055
514 1 -23.6768112 -23.6778622 -0.0230999
515 1 -22.4047489 -22.4051209 1.2785683
516 1 -17.0834694 -22.3450184 1.3249302
517 1 -23.6533051 -18.412384 -0.0031052
518 1 -24.9943466 -19.7590027 1.3276653
519 1 -22.440279 -3.9863434 3.903431
520 1 -19.6414871 -19.7934723 1.3677635
521 1 -14.4314137 -19.7148533 1.3197727
522 1 -21.0417938 -15.6970415 0.0093651
523 1 -22.3172207 -17.130333 1.2826748
524 1 -16.9850656 -17.1004944 1.4308567
525 1 -15.7517319 -18.5016327 2.7220574
526 1 -24.965292 -14.5191841 1.3742371
527 1 -19.7426834 -14.4274626 1.3650818
528 1 -21.0469513 -13.1182051 2.6220742
529 1 -15.847191 -13.2042952 2.6109696
530 1 -14.3868942 -14.389679 1.3605023
531 1 -23.8004284 -13.1508303 0.0080509
532 1 -22.4531784 -11.8080521 1.2880955
533 1 -17.1421452 -11.7883187 1.3356629
534 1 -25.0682125 -9.1568585 1.3721848
535 1 -21.1233025 -10.4842711 0.0057869
536 1 -23.7210827 -10.4842711 2.6548062
537 1 -19.8003044 -9.1304932 1.3596611
538 1 -15.8003035 -10.4269638 -1.5830994e-04
539 1 -18.4612541 -7.8412324 -0.0152607
540 1 -14.4857207 -9.132019 1.2276821
541 1 -23.6137467 -7.9186936 0.0282574
542 1 -22.4052315 -6.5549717 1.3886547
543 1 -21.0877972 -5.3428555 0.0194721
544 1 -17.1536694 -6.6386414 1.3737621
545 1 -13.1860304 -7.7785588 -0.0648842
546 1 -24.9726868 -3.8518906 1.3960762
547 1 -19.7985688 -3.955452 1.2887249
548 1 -18.4570961 -2.5241623 0.0123138
549 1 -15.8887634 -5.2657108 0.0645161
550 1 -14.6235409 -3.911829 1.2752533
551 1 -26.2978897 -2.5574208 2.7215843
552 1 -23.7238465 -2.6608773 -0.0251007
553 1 -22.5302449 -1.272316 1.2899361
554 1 -17.1381455 -1.2051697 1.3829193
555 1 -13.1695061 -13.1535149 5.2152062
556 1 -13.2719641 -2.6544571 -0.0199432
557 1 -23.6610184 -26.2640095 2.5837631
558 1 -22.3568401 -24.9407482 3.9087468
559 1 -13.2330237 -0.0917206 2.5944462
560 1 -17.1037293 -25.0800476 4.0901375
561 1 -13.1990805 -23.6779042 5.2464619
562 1 -25.004324 -22.3485661 3.9388982
563 1 -23.6203671 -21.0059547 2.6284943
564 1 -19.7441044 -22.3491707 3.9757348
565 1 -18.4217339 -21.070713 2.707428
566 1 -15.7065287 -21.0440025 5.2199936
567 1 -14.4459372 -22.3602905 3.8257599
568 1 -18.5057202 -0.0186806 2.787941
569 1 -22.3836098 -19.6757012 4.0028343
570 1 -21.0637493 -18.4439049 2.6521759
571 1 -17.0435295 -19.7948933 3.977419
572 1 -21.1998062 -2.6280403 2.5494557
573 1 -24.9236946 -17.1064415 4.0064125
574 1 -19.6926918 -17.1608543 3.9823112
575 1 -18.3917389 -15.8107605 2.6429653
576 1 -14.4088907 -17.0289269 3.902958
577 1 -23.6403485 -15.8013935 2.6291237
578 1 -22.2719631 -14.5281296 3.9724732
579 1 -15.8047762 -26.280613 0.0074711
580 1 -15.8136692 -15.6664152 5.2183113
581 1 -17.1441975 -14.4738226 3.9029064
582 1 -18.4590435 -13.1842985 5.2370968
583 1 -26.2396679 -13.0887356 2.6054974
584 1 -24.9074078 -11.848835 3.9811554
585 1 -19.6542759 -11.8723584 3.8896962
586 1 -18.5018788 -10.4629584 2.5896073
587 1 -14.5406599 -11.8683052 3.9112186
588 1 -22.4401474 -9.2161636 3.990574
589 1 -17.0756817 -9.2548428 3.9041138
590 1 -15.7377863 -7.9334812 2.6369133
591 1 -23.7805214 -5.2553444 2.7214775
592 1 -13.1768742 -5.1278381 2.5981293
593 1 -25.1087799 -6.6397476 3.983942
594 1 -21.1230507 -7.9048024 2.735632
595 1 -19.8577176 -6.580494 4.0624027
596 1 -14.3864737 -6.5580235 3.9556332
597 1 -26.2156143 -0.0054207 -5.1531105
598 1 -13.1967135 -10.526105 2.5305119
599 1 -23.6597042 -23.6723519 5.2551975
600 1 -21.0461102 -15.8264418 5.2600403
601 1 -18.4093666 -18.5052643 5.2542
602 1 -21.0432148 -10.5386296 5.2576714
603 1 -18.4064198 -7.9370576 5.2217846
604 1 -13.189661 -2.6896611 5.2158909
605 1 -15.6829005 -26.295435 -5.2331505
606 1 -26.2004623 -5.2056141 -5.2195206
607 1 -18.4889336 -23.64431 -5.2530937
608 1 -15.7245255 -21.0493488 -5.2112064
609 1 -24.934435 -25.0002346 6.6282254
610 1 -13.1820307 -0.008894 7.8796406
611 1 -19.756733 -24.9790382 6.6699009
612 1 -18.3866329 -26.2657833 7.9472066
613 1 -14.4349394 -25.0250187 6.6148052
614 1 -15.7363129 -23.6497936 7.8318081
615 1 -22.3051911 -22.4135552 6.6023884
616 1 -20.997591 -21.0125866 5.3386574
617 1 -17.1758232 -22.4081307 6.5636044
618 1 -24.9120694 -19.736166 6.6342755
619 1 -19.7325268 -19.7380066 6.6101742
620 1 -18.358902 -20.9921684 7.9379482
621 1 -14.4524098 -19.7312718 6.5693951
622 1 -14.4925089 -1.3789292 14.5325985
623 1 -22.3837662 -17.0269814 6.6607456
624 1 -23.6686344 -18.4328537 5.3407097
625 1 -15.7552586 -26.2599697 10.5723858
626 1 -21.0141678 -26.2501488 10.468771
627 1 -17.0847321 -17.0912323 6.5054569
628 1 -15.6723757 -18.2901421 7.8300686
629 1 -13.2279711 -18.4053326 5.2757721
630 1 -25.0542526 -14.5009241 6.5567112
631 1 -26.2881756 -15.8288622 5.277668
632 1 -19.7758351 -14.5398121 6.5770741
633 1 -14.4835634 -14.4089394 6.551817
634 1 -15.8279305 -2.6416168 13.2534504
635 1 -22.316988 -11.843152 6.6177006
636 1 -13.2151842 -0.0272064 13.0986347
637 1 -17.1739826 -11.9043522 6.5716038
638 1 -15.8242464 -10.5974102 5.3025589
639 1 -25.0607033 -9.283205 6.5855465
640 1 -21.0196934 -7.9235878 7.7869206
641 1 -23.7108155 -7.9296914 5.2830868
642 1 -19.7315254 -9.2601566 6.5041943
643 1 -21.0536919 -26.2105427 5.350235
644 1 -14.5559197 -9.208849 6.5366612
645 1 -22.4091263 -6.5809136 6.5366612
646 1 -21.1572189 -5.1107884 5.3636017
647 1 -17.1963463 -6.5178185 6.5570278
648 1 -25.0434113 -3.9748174 6.5591297
649 1 -21.073431 -2.584837 7.9946232
650 1 -19.7628365 -3.9493484 6.667059
651 1 -15.7729912 -5.3090191 5.2935066
652 1 -14.4701967 -3.9443494 6.6414852
653 1 -23.6889992 -2.6305142 5.2710896
654 1 -22.4525624 -1.2972069 6.6125431
655 1 -17.1508293 -1.325203 6.5631314
656 1 -18.4177342 -2.6567726 5.2909279
657 1 -26.2733898 -13.1004705 13.1190014
658 1 -22.3111897 -24.952469 9.1780491
659 1 -21.0244808 -23.6307221 7.9121076
660 1 -17.0053768 -24.9318296 9.1827869
661 1 -26.2755509 -23.6277867 7.9246846
662 1 -25.0095749 -22.3060722 9.203886
663 1 -18.3760567 -23.6768952 10.5357113
664 1 -19.734684 -22.3807297 9.241827
665 1 -15.6990557 -21.0096931 10.5019779
666 1 -14.4693547 -22.2764092 9.190836
667 1 -23.6853466 -21.0524902 7.9206868
668 1 -22.2880192 -19.7651596 9.1022205
669 1 -20.992592 -18.3691273 7.8762722
670 1 -17.0493698 -19.6239739 9.2246189
671 1 -18.3897381 -0.0086308 13.2202969
672 1 -24.9779968 -17.1608009 9.2139378
673 1 -23.7614613 -15.7917633 7.9770452
674 1 -19.7256317 -17.1044426 9.2585087
675 1 -19.7063732 -1.3262539 14.535017
676 1 -14.3099594 -16.9741478 9.1574726
677 1 -23.6515312 -13.1446743 10.4959774
678 1 -22.372242 -14.5752802 9.298029
679 1 -18.4400463 -15.8408604 7.859068
680 1 -17.1506691 -14.4379874 9.2190418
681 1 -25.021553 -11.7998953 9.2479305
682 1 -23.7122803 -10.4770613 7.9486256
683 1 -21.0637131 -13.2569704 8.0167751
684 1 -19.7664681 -11.882619 9.2545643
685 1 -15.8395606 -13.1140995 7.9761524
686 1 -14.5115061 -11.8119993 9.2180958
687 1 -22.3273125 -9.2708931 9.1616306
688 1 -18.4447289 -10.5163174 7.9414196
689 1 -17.0739975 -9.1946411 9.3117123
690 1 -23.6895352 -5.3148594 7.861433
691 1 -25.0291195 -6.5648651 9.1930981
692 1 -19.7034779 -6.5765457 9.1067982
693 1 -15.8688184 -7.8695432 7.8831692
694 1 -14.5493946 -6.5901222 9.2586117
695 1 -20.9428636 -5.2350311 10.4554577
696 1 -22.4579506 -3.9177228 9.2404575
697 1 -18.367899 -5.2044048 7.9143734
698 1 -18.4373627 -2.6970291 10.5526524
699 1 -17.0434227 -3.9247742 9.2205143
700 1 -24.9726068 -1.3300972 14.4726086
701 1 -25.0618305 -1.2834206 9.1447887
702 1 -19.6982689 -1.3262539 9.2279339
703 1 -26.3038502 -10.51474 10.4994526
704 1 -15.8280878 -2.5992031 7.910532
705 1 -14.4897194 -1.2801571 9.1746807
706 1 -25.0159225 -25.054966 11.822485
707 1 -23.6945668 -23.6881562 10.5169201
708 1 -19.6449089 -24.9310932 11.924204
709 1 -14.3852625 -24.9650974 11.8309574
710 1 -15.716053 -23.6427784 13.0478001
711 1 -21.008379 -23.6813565 13.1624661
712 1 -22.3281918 -22.3725472 11.8555852
713 1 -18.3553219 -21.0276375 13.0811634
714 1 -17.0544739 -22.3345204 11.7432385
715 1 -17.0514221 -3.9561902 14.5332852
716 1 -24.9947244 -19.6685982 11.7477627
717 1 -21.0892506 -21.0987988 10.4362011
718 1 -19.8088303 -19.7846298 11.7734432
719 1 -13.1719799 -20.9692784 13.0859013
720 1 -14.4708281 -19.6265526 11.7963887
721 1 -15.7855683 -18.3551827 13.1598339
722 1 -23.5586033 -18.396122 10.4818783
723 1 -21.0124302 -15.8284941 10.6399021
724 1 -22.4047794 -17.1254902 11.9349958
725 1 -18.3957901 -18.4689007 10.6385861
726 1 -16.974329 -17.0453987 11.8004895
727 1 -24.9415588 -14.4502478 11.769495
728 1 -19.7037411 -14.5077124 11.879633
729 1 -15.6684294 -15.7519284 10.4585629
730 1 -14.4123631 -14.44909 11.8698484
731 1 -22.4142628 -11.8876706 11.9223118
732 1 -18.4247856 -13.1358328 10.5377598
733 1 -17.1103077 -11.8458358 11.9293118
734 1 -15.7139483 -10.5223179 10.5312863
735 1 -24.9804898 -9.1036568 11.7902317
736 1 -23.7159634 -7.8406544 10.5074482
737 1 -21.0766563 -10.5651522 10.5972233
738 1 -19.7277375 -9.1738548 11.8238011
739 1 -14.4420958 -9.2532101 11.8713208
740 1 -22.2836247 -6.5377636 11.7780209